160
Lattice="11.77485 0.0 0.0 0.0 11.77485 0.0 0.0 0.0 11.77485" Properties=species:S:1:pos:R:3:molID:I:1:forces:R:3 Gen=0 Samp=OPLS-MD Nmols=12 Comp=EC(4):EMC(8) Temp=1200 Dens=1.2054065335885318 energy=-23788.909331691 virial="25.25163892044583 3.196145401600064 -0.6267348957611402 3.196145401600064 26.49063394339903 -7.561052953488558 -0.6267348957611402 -7.561052953488558 31.99821724702013" pbc="T T T"
C       10.30691478      11.84415677      10.67121686        0      -1.11541215       2.94997786       2.97172877
C        8.87026533      11.62952480      10.74849520        0      -2.81641299       1.86030041      -1.92183432
O        8.76265497      10.33556299      11.18350526        0      -2.18933689      -1.14105853      -0.34224877
C        9.99352714       9.83506121      11.29283474        0      -5.02329206     -10.01548590       2.22550638
O       10.04174515       8.57563503      11.56249058        0       0.98230899       3.78084592      -0.75751387
O       10.87528678      10.66383403      11.17509802        0       5.66299789       3.62601932      -0.17631539
H       10.17488338      12.82607328      11.21051676        0       2.81078599      -0.84067603       0.01947068
H       10.51073743      11.91060225       9.70322999        0       1.92955840       0.60417499      -4.02549140
H        8.54957729      11.91182683       9.68026903        0      -0.76800773      -1.02353816       1.09011543
H        8.33866617      12.32157984      11.41840174        0      -0.13289341      -0.31179838       0.21250912
C        9.98584994       2.92662719       2.86423226        1       1.73438156      -4.01966658       0.64999557
C        8.92392332       3.84713787       3.34554103        1       0.67988896      -1.86690717       1.15764688
O        9.41794892       5.06736557       2.89947439        1      -4.44319004       1.91702519       2.23666296
C       10.40178474       4.98842698       2.12151005        1       1.44552539      -1.10961353      -4.69059429
O       10.64963356       5.92517517       1.40616436        1       2.09191998       0.31338882      -0.25743898
O       10.79793779       3.62444013       1.91993639        1      -0.30937074       2.20295298       0.31815061
H        9.70778686       1.89929508       2.38910529        1      -0.03737714       1.79675135       0.66660493
H       10.62999311       2.66847538       3.73267455        1       0.08611090      -0.16280007      -0.31298850
H        8.88211083       4.00779392       4.37969078        1       0.60284091      -0.34149572       2.17435348
H        8.00202321       3.31035778       3.26312886        1      -1.95958151       1.09321407      -1.99668105
C        5.48640893      10.19605456       0.50439925        2      -2.45754551       2.91377300      -1.25720701
C        4.41421464       9.77538627       1.53718312        2       5.97530220      -1.97760399       0.25916532
O        4.85565377      10.54442527       2.63079586        2      -3.27604135       0.34464463       1.27654527
C        6.05361523      11.06652212       2.45235978        2      -0.42600916      -1.16657211       0.50961369
O        6.57029565      11.60069997       3.37164587        2       2.13125783       1.69519528       1.41142388
O        6.51948717      10.72859570       1.27233142        2       2.38929547       0.35276160      -0.24283098
H        5.06488108      11.15789496      -0.08837025        2       0.69049972      -2.29946359       0.65224676
H        5.89633856       9.44619679      -0.11281484        2       0.24385510      -0.89176692      -1.05648216
H        4.64285868       8.74771269       1.86493607        2      -0.54309367      -0.17486422      -0.35538463
H        3.49760144       9.90480365       1.19468806        2      -4.42822254       0.95519046      -0.98210023
C        2.02549792       9.59165151       4.77454860        3       3.78776273      -0.31195184      -0.24894317
C        2.11137190       9.24457603       6.26626902        3       2.86266107       3.03442879      -1.05628786
O        2.03574204      10.61028201       6.79048535        3       0.80006388      -1.02968326       1.96736063
C        1.73621341      11.54765427       5.89697440        3      -5.23950742       0.03748156       2.06390131
O        1.07801107      12.51805498       6.35140119        3       2.43949760      -0.18054687      -2.03191165
O        1.60292211      10.98845487       4.66998793        3      -0.12031077      -0.20110581      -0.58444399
H        1.60355795       8.81396977       4.14824433        3      -1.03785018       0.65746587      -0.26418184
H        3.11515432       9.62895424       4.43738755        3      -1.02382054      -0.12850240      -0.01805205
H        3.09215803       8.89805397       6.66801513        3      -0.34315178      -0.20089787      -0.73007507
H        1.38698313       8.64169194       6.64333505        3      -2.65754184      -1.45094935       1.28098442
C        9.33539545       9.02059484       3.02733748        4      -0.39756798      -3.37066846      -3.43286425
C       10.86841027       9.11996280       2.75770519        4       0.02412337      -1.34559521       3.29528270
O       11.00015907      10.32686137       2.21411924        4      -0.21903843       5.49020832      -2.89310939
C       12.03627522      11.07790840       1.86494784        4       2.69497357      -2.06187023      -2.29754839
O       13.20867348      10.60074438       1.73629583        4      -2.50208843       1.68906148       0.83127817
O       11.56046531      12.26383597       1.28882798        4       1.45604385       0.39306793       0.60826056
C       12.67836957      13.11116595       0.71213115        4       0.66658794       0.89976223       3.55310892
H        8.80152375       8.06541900       2.66029186        4       0.58053674       1.48668569      -1.13787057
H        8.79331668       9.94270689       2.73419082        4       0.25065754      -0.57820245       0.94236719
H        9.46522495       8.55873812       3.93527262        4      -1.12076355       0.53560401       3.36238375
H       11.63110263       8.33944331       2.47734602        4      -1.19167995       0.29867354      -0.42416727
H       11.00232564       9.37480587       3.82215163        4       1.64914646      -0.57237260       0.28386291
H       13.47374891      12.45316378       0.42465997        4       0.66203927      -0.21164737       0.08651411
H       12.96807797      13.97107147       1.46687549        4      -0.01436458      -2.29089096      -0.27752490
H       12.53332696      13.85910442      -0.01030299        4      -1.95738087       0.10465978      -2.18910356
C        2.76252111       2.32645131       3.71375237        5       3.78962505      -1.62674238      -1.74460592
C        4.15238908       2.10010337       2.96767432        5      -0.40413990       0.76466227       0.41237947
O        4.27224528       2.62334238       1.62036066        5      -1.42795933       1.91726604      -0.24925580
C        5.29578589       2.25125712       0.89908045        5      -0.25476178      -0.38075569      -1.35771797
O        6.37440925       1.82764512       1.20203556        5       2.12907430      -0.34486889       1.62180074
O        4.95194849       2.28249580      -0.39186701        5      -3.97770755       2.18196238      -0.48757763
C        5.89000369       2.06927681      -1.39511955        5       2.92484667       0.24791435       2.80903140
H        2.97931965       2.31705498       4.72402272        5       0.37426066       0.76919180       2.37211884
H        2.25594351       1.43137432       3.61235913        5      -1.18008363      -2.20367854      -0.55621405
H        2.09100141       3.03017522       3.42233660        5      -1.27082241       2.73246920      -0.80520415
H        4.18626532       1.11658548       2.63126686        5       0.06200680      -2.51535205       0.94917014
H        5.08319097       2.33256246       3.52311754        5      -0.52621003       0.17996076       0.03198688
H        6.81012580       2.64399547      -1.02553056        5      -0.66372594      -0.27051734      -1.31717041
H        5.54832109       2.24692398      -2.38921126        5      -0.43292217       0.24288400      -0.40696381
H        6.14715464       1.08255616      -1.09271785        5       0.96667981      -1.65290278      -1.33253257
C        9.19422677      12.06090821       5.23868964        6      -1.17652005      -2.23760201      -0.89528756
C        9.49684042      10.96337444       6.37975503        6       0.13088883       0.73195937       0.59666612
O        8.25096709      10.54057490       7.06645251        6      -2.62266084      -0.44618926       0.69862318
C        8.40658351       9.61020868       8.09258358        6       0.47970356      -0.25259203      -0.94744344
O        9.55831691       9.38599198       8.40528827        6       0.27314546      -1.24715129       1.36952944
O        7.23459736       8.99452532       8.55728981        6       0.01325256       2.17582215      -1.67046250
C        7.14638019       7.75108938       9.31590807        6       2.83296855      -0.33929824      -3.60764572
H       10.22645722      12.50751649       4.85851506        6      -2.23230325      -0.30782992       1.20928376
H        8.21299320      12.66840804       5.53203648        6       2.65465914      -0.46688453      -0.25332114
H        8.76159524      11.47605141       4.35343287        6       0.70550511       0.71052348       0.79207425
H       10.07259526      11.56106582       7.14201172        6       0.09149173      -1.08682454      -0.49508801
H        9.90178929       9.91103254       6.14098462        6       0.38745010       1.94601140      -0.32189695
H        6.75485465       6.94280481       8.62528957        6       0.85837748       0.55408726       0.22426747
H        6.42864421       7.77495700      10.02845135        6      -2.14316401       1.02216132       2.61776732
H        8.15905261       7.61399481       9.67466420        6       0.18312116      -0.76284993       0.52706224
C        3.41277542       5.20137514      11.39081327        7      -3.39255452       1.64982805       1.12153039
C        3.51467498       5.05088078       9.92967213        7       2.14710295       0.58854314      -1.05370974
O        2.47343677       5.42367253       9.00390987        7      -1.41688285       1.55474787      -0.64616282
C        1.15147436       4.99478540       9.19785343        7       3.72311178      -2.43135717       4.43050734
O        1.03332551       3.93302362       9.84696558        7      -0.84546377       0.85573259      -1.27785239
O        0.25708030       5.87184687       8.94564792        7       0.14897723       1.24480323      -1.94123096
C       -0.39936759       6.67905994       9.92929534        7      -3.61791979      -6.83918182       1.05953919
H        2.31599525       5.39773254      11.61880969        7       1.10866257       0.58197779       0.32294998
H        4.14104990       5.68190677      12.03837114        7       0.06382012       1.55755248      -0.60987886
H        3.51766579       4.30547390      11.86313783        7       0.00653539      -3.29832884       0.88987978
H        3.72175926       4.00235394       9.83137568        7       0.54140881      -0.64515737      -1.00549594
H        4.34382459       5.76052744       9.62644619        7      -0.48272445      -1.13917026      -0.39626407
H       -0.53032747       7.62595805       9.78125015        7       0.65559434       5.88947163      -1.38360528
H       -0.40750401       6.38325216      10.97626790        7       1.35359209      -0.15107006       0.27451067
H       -1.44212475       6.29357490       9.71028313        7       0.16668588       0.69303422       0.39316120
C        4.71165913       4.02366642       6.74697728        8       1.23961319      -0.39322123       1.84384807
C        6.28512056       3.54054432       6.58329509        8      -2.70368504       0.11300845      -2.03395307
O        6.97963654       3.69208664       7.77198974        8       2.35431307       0.58664673       4.39248368
C        8.29766615       3.24889306       8.12136132        8      -0.61390701      -3.99277534      -3.01214099
O        8.74295565       2.18629527       7.63562520        8      -1.12612814       1.72078510       0.56280445
O        9.01787485       3.92926745       9.01300006        8      -1.69167860       1.37782321      -0.05785620
C        9.82398108       3.12207793       9.83833462        8       0.84694686      -0.05126333       2.63945425
H        4.14864468       3.98922498       5.83429688        8       0.10108146      -0.25016145      -1.08049334
H        4.49515496       5.05995919       7.15880265        8       0.72853098      -1.06807414      -0.09651916
H        4.21525500       3.24872821       7.40724021        8       0.35571715       0.91837706      -0.32999976
H        6.82597474       4.25917519       5.99472921        8      -0.12298340       0.11232527      -1.59696139
H        6.13786428       2.51184633       6.07654087        8       1.07054845       1.08750239       0.96285301
H       10.60718522       2.47574464       9.44979989        8      -1.07762516      -1.16881616      -1.01038248
H        9.35522430       2.92481387      10.85211388        8      -0.47043302      -0.88263667      -1.38061900
H       10.59551635       3.67839249      10.29656468        8       0.85481481       2.41676069       0.17650345
C        5.11427657      11.00814242       6.41603334        9      -1.95757792       3.31819994      -2.54566528
C        5.01807605      12.07548547       7.52549503        9      -1.01818521      -0.51658260      -1.17278773
O        4.09342063      12.01827147       8.66684302        9      -1.32117012       0.41538066       1.07805898
C        3.84248680      10.85702399       9.21956625        9       2.77558129      -4.18270738      -0.21332229
O        4.41602797       9.80829698       8.85246175        9      -0.74602823       1.04068042      -0.25374488
O        3.14043492      10.71128667      10.38832609        9       2.04009015       3.43098274       0.61725771
C        1.85805956      10.30181626      10.21626020        9      -1.30213452      -2.94076944      -1.88149690
H        4.14234513      10.97048645       5.81862455        9       0.75941689      -0.54250669       1.13830286
H        5.56719618      10.03966100       6.49073299        9       0.52417847      -0.16402726       0.42910973
H        5.54874499      11.74405877       5.61716864        9       0.57909067      -1.68097198       0.95220113
H        4.51443039      12.96118969       7.03424829        9       1.29912008      -0.46610913       0.39470432
H        6.01859683      12.16458576       7.93331696        9       0.30463253       0.66781347       0.20600871
H        1.46744068       9.83475506      11.09312151        9      -0.59141440       0.91457690       1.27323852
H        1.94979741       9.34940752       9.65350480        9      -0.35079919       0.00868042      -0.73834130
H        1.27454509      10.97514929       9.60226065        9      -0.69282101       0.40991123       0.33323222
C       -0.90492077       4.79221088       6.22883678       10      -1.34375925      -0.55404609      -2.33451594
C       -0.44913988       6.18993267       5.97275734       10      -1.67692807      -0.77384860       3.37809782
O        0.77547985       6.57248577       5.53977255       10       1.12809003       4.89132047       2.26887702
C        1.58899246       5.98523868       4.76429271       10      -1.31584257      -2.11973293      -2.05081445
O        1.42360291       4.83237489       4.53801542       10       0.48463658      -4.20986462      -0.83960556
O        2.36022158       6.74403356       4.04764001       10      -0.13580512       4.14954151       1.01062020
C        2.84568687       6.30752810       2.81402430       10       1.49494021      -4.13727760       0.49912903
H       -0.21996597       4.28617492       6.85616546       10       0.57946105      -0.69140029       1.01347189
H       -0.99483353       4.15121159       5.30077842       10      -0.01176127       0.56972844       0.87983877
H       -1.91643926       4.92524313       6.70079631       10       0.78894175      -0.42250814      -0.20963764
H       -0.69782471       6.62526065       6.96715520       10       1.81064917      -0.11178295       0.76219221
H       -1.14957861       6.88400120       5.68216581       10      -2.17004456       1.21319041      -3.08556333
H        3.25586377       7.10132961       2.25927579       10       0.01572743       1.60335832      -0.59066524
H        2.02540372       5.72576808       2.17686362       10       1.87411062       0.78436183       1.43062468
H        3.82948737       5.76321211       3.24284079       10      -2.01596196      -0.11368287      -2.22610757
C        7.44357740       7.51353178       5.14914191       11       1.40913342      -0.84363607       0.78881632
C        6.20361505       6.99499094       4.36401846       11      -0.30005877       1.97164524       1.37243761
O        6.12678415       7.20514846       2.91647727       11       1.53076510       3.03700297      -1.30526983
C        6.30027479       6.23802116       2.06191753       11      -1.45814701      -8.26611608      -0.36452966
O        5.72144671       5.04776045       2.23577319       11       1.61936936       4.29435043      -0.13925476
O        7.17896120       6.26478539       1.00264025       11      -0.89929925       3.49645851       1.13614109
C        7.15656543       5.28921552      -0.01230472       11      -0.77219626       0.84476794      -1.51183261
H        7.37779131       7.36898373       6.31479318       11      -0.31025986      -1.04816342      -1.85790249
H        7.41675429       8.60441276       5.31636832       11       0.44064137       0.13955338      -1.30102385
H        8.50665796       7.05996456       4.75952389       11      -2.57839034       1.20865592       0.97070641
H        5.29885912       7.48376496       4.83001992       11       0.56974669      -0.33453593      -0.74205706
H        6.05239065       5.98331938       4.32844663       11      -0.17347165      -3.02411837       1.12383029
H        6.26896546       4.82622842      -0.39071307       11      -1.70289501       0.31076665       0.58101667
H        7.67549485       4.48830200       0.31325811       11       2.16956358      -2.84202729       1.27041690
H        7.60335034       5.61437800      -0.95182000       11       0.58308125       0.88098553       0.33659855